109
Energy = 0.00 kcal/mol
C    -5.268226 -2.153629 1.590173
C    -3.991510 -2.521910 1.887044
C    -2.983755 -2.476373 0.897036
C    -1.622656 -2.816356 1.318657
N    -0.865112 -3.865225 0.911118
C    -1.205027 -4.917154 -0.045303
C    -0.150835 -5.058197 -1.123805
N    0.295535 -3.900584 1.488423
N    0.311536 -2.878765 2.284434
C    -0.828981 -2.170717 2.228749
C    -3.253418 -2.047846 -0.386647
C    -2.196474 -2.009843 -1.420224
C    -1.152525 -1.088126 -1.271679
O    -1.090998 -0.325149 -0.231391
C    -0.169181 -1.026701 -2.310824
C    -0.238305 -1.823262 -3.407861
C    -1.276037 -2.772461 -3.568764
C    -2.269400 -2.860743 -2.557985
C    -3.281818 -3.839703 -2.724403
C    -3.298069 -4.670469 -3.813848
C    -2.311739 -4.573469 -4.810164
C    -1.323441 -3.634784 -4.681087
C    -4.578031 -1.614939 -0.690403
C    -5.592634 -1.686391 0.298505
C    -6.903655 -1.267052 -0.019385
C    -7.197294 -0.777787 -1.259751
C    -6.186561 -0.676806 -2.234471
C    -4.911677 -1.083156 -1.958319
H    -6.040862 -2.201063 2.347116
H    -3.741193 -2.861639 2.884115
H    -1.333106 -5.841617 0.518696
H    -2.167620 -4.648396 -0.469633
H    0.053382 -4.100262 -1.597493
H    0.779658 -5.460478 -0.727561
H    -0.522417 -5.733371 -1.892803
H    -0.999366 -1.265063 2.781419
H    0.635592 -0.308290 -2.227244
H    0.517488 -1.735416 -4.179808
H    -4.063327 -3.933543 -1.980877
H    -4.085803 -5.406909 -3.909605
H    -2.337864 -5.232014 -5.667864
H    -0.553286 -3.545528 -5.438667
H    -7.671462 -1.328862 0.741988
H    -8.202980 -0.453875 -1.492449
H    -6.420651 -0.266722 -3.207663
H    -4.139754 -0.986870 -2.708409
C    1.543000 -2.565609 3.024056
C    2.596315 -2.016975 2.114629
C    2.306898 -0.785952 1.474985
O    1.200144 -0.195623 1.773191
Co   0.213386 0.870334 0.481844
N    0.105231 2.845339 0.630218
S    -1.255497 3.472923 1.144786
C    -0.864041 4.352894 2.718927
F    -0.273726 3.527910 3.578296
F    -0.057144 5.382868 2.495460
F    -1.983006 4.805003 3.271316
O    -1.781467 4.524224 0.290571
O    -2.089402 2.363434 1.575700
C    1.099695 3.625253 -0.084640
C    1.781735 2.682873 -1.119966
N    1.949905 1.404863 -0.457608
C    3.093448 0.902381 -0.210700
C    3.285206 -0.304793 0.564790
C    4.492247 -0.997674 0.404796
C    4.774201 -2.190160 1.041238
C    6.069596 -2.968236 0.846314
C    5.751081 -4.350418 0.260941
C    7.028167 -2.255737 -0.107474
C    6.776923 -3.136484 2.197145
C    3.777054 -2.687496 1.890616
H    0.641355 4.451398 -0.641127
H    2.756738 3.116209 -1.376824
H    3.994276 1.386423 -0.600025
H    5.218885 -0.567221 -0.274092
H    5.249881 -4.261457 -0.703906
H    6.666323 -4.927770 0.113501
H    5.102005 -4.933506 0.915841
H    6.601510 -2.136855 -1.105054
H    7.314437 -1.269155 0.261315
H    7.944068 -2.838317 -0.216134
H    7.707269 -3.695892 2.078752
H    7.020537 -2.167962 2.635747
H    6.162885 -3.678629 2.917666
H    3.932331 -3.634700 2.397153
C    1.020832 2.444389 -2.408393
C    1.740877 1.933435 -3.486575
C    -0.346823 2.645357 -2.553915
C    1.113711 1.616168 -4.679278
C    -0.977104 2.322108 -3.748462
C    -0.255376 1.802297 -4.809408
H    2.810195 1.779595 -3.389752
H    -0.940188 3.056981 -1.750347
H    1.692059 1.224800 -5.506165
H    -2.043856 2.475910 -3.840386
H    -0.754573 1.545893 -5.734428
C    2.183218 4.192000 0.808970
C    2.801806 5.385764 0.452986
C    2.631650 3.517421 1.939527
C    3.848122 5.898494 1.203661
C    3.681367 4.026774 2.689871
C    4.293533 5.216618 2.326329
H    2.451232 5.928966 -0.417682
H    2.154835 2.596726 2.247653
H    4.308619 6.835115 0.917342
H    4.017063 3.492090 3.568954
H    5.106596 5.614910 2.918965
H    1.255212 -1.854190 3.797295
H    1.867520 -3.485445 3.508570
